CO HF/sto-3g                                                            
SP        RHF                                                         STO-3G              
Number of atoms                            I                2
Info1-9                                    I   N=           9
          13          10           0           0           0         110
           1           1           2
Charge                                     I                0
Multiplicity                               I                1
Number of electrons                        I               14
Number of alpha electrons                  I                7
Number of beta electrons                   I                7
Number of basis functions                  I               10
Number of independent functions            I               10
Number of point charges in /Mol/           I                0
Number of translation vectors              I                0
Atomic numbers                             I   N=           2
           8           6
Nuclear charges                            R   N=           2
  8.00000000E+00  6.00000000E+00
Current cartesian coordinates              R   N=           6
  0.00000000E+00  0.00000000E+00  2.13200000E+00  0.00000000E+00  0.00000000E+00
  0.00000000E+00
Force Field                                I                0
Int Atom Types                             I   N=           2
           0           0
MM charges                                 R   N=           2
  0.00000000E+00  0.00000000E+00
Integer atomic weights                     I   N=           2
          16          12
Real atomic weights                        R   N=           2
  1.59949146E+01  1.20000000E+01
Atom fragment info                         I   N=           2
           0           0
Atom residue num                           I   N=           2
           0           0
Nuclear spins                              I   N=           2
           0           0
Nuclear ZEff                               R   N=           2
 -5.60000000E+00 -3.60000000E+00
Nuclear ZNuc                               R   N=           2
  8.00000000E+00  6.00000000E+00
Nuclear QMom                               R   N=           2
  0.00000000E+00  0.00000000E+00
Nuclear GFac                               R   N=           2
  0.00000000E+00  0.00000000E+00
MicOpt                                     I   N=           2
          -1          -1
Number of contracted shells                I                4
Number of primitive shells                 I               12
Pure/Cartesian d shells                    I                0
Pure/Cartesian f shells                    I                0
Highest angular momentum                   I                1
Largest degree of contraction              I                3
Shell types                                I   N=           4
           0          -1           0          -1
Number of primitives per shell             I   N=           4
           3           3           3           3
Shell to atom map                          I   N=           4
           1           1           2           2
Primitive exponents                        R   N=          12
  1.30709321E+02  2.38088661E+01  6.44360831E+00  5.03315132E+00  1.16959612E+00
  3.80388960E-01  7.16168373E+01  1.30450963E+01  3.53051216E+00  2.94124936E+00
  6.83483096E-01  2.22289916E-01
Contraction coefficients                   R   N=          12
  1.54328967E-01  5.35328142E-01  4.44634542E-01 -9.99672292E-02  3.99512826E-01
  7.00115469E-01  1.54328967E-01  5.35328142E-01  4.44634542E-01 -9.99672292E-02
  3.99512826E-01  7.00115469E-01
P(S=P) Contraction coefficients            R   N=          12
  0.00000000E+00  0.00000000E+00  0.00000000E+00  1.55916275E-01  6.07683719E-01
  3.91957393E-01  0.00000000E+00  0.00000000E+00  0.00000000E+00  1.55916275E-01
  6.07683719E-01  3.91957393E-01
Coordinates of each shell                  R   N=          12
  0.00000000E+00  0.00000000E+00  2.13200000E+00  0.00000000E+00  0.00000000E+00
  2.13200000E+00  0.00000000E+00  0.00000000E+00  0.00000000E+00  0.00000000E+00
  0.00000000E+00  0.00000000E+00
Constraint Structure                       R   N=           6
  0.00000000E+00  0.00000000E+00  2.13200000E+00  0.00000000E+00  0.00000000E+00
  0.00000000E+00
Num ILSW                                   I              100
ILSW                                       I   N=         100
           0           0           0           0           2           0
           0           0           0           0           0          -1
           5           1           0           0           0           0
           0           0           0           0           0           0
           1           1           0           0           0           0
           0           0      100000           0          -1           0
           0           0           0           0           0           0
           0           0           0           1           0           0
           0           0           1           0           0           0
           0           0           4          41           0           0
           0           0           0           0           0           0
           0           0           0           2           0           0
           0           0           0           0           0           0
           0           0           0           0           0           0
           0           0           0           0           0           0
           0           0           0           0           0           0
           0           0           0           0
Num RLSW                                   I               41
RLSW                                       R   N=          41
  1.00000000E+00  1.00000000E+00  1.00000000E+00  1.00000000E+00  1.00000000E+00
  0.00000000E+00  0.00000000E+00  1.00000000E+00  0.00000000E+00  0.00000000E+00
  0.00000000E+00  0.00000000E+00  1.00000000E+00  0.00000000E+00  0.00000000E+00
  0.00000000E+00  0.00000000E+00  1.00000000E+00  0.00000000E+00  0.00000000E+00
  0.00000000E+00  0.00000000E+00  1.00000000E+00  0.00000000E+00  0.00000000E+00
  0.00000000E+00  0.00000000E+00  1.00000000E+00  0.00000000E+00  0.00000000E+00
  0.00000000E+00  0.00000000E+00  1.00000000E+00  0.00000000E+00  0.00000000E+00
  0.00000000E+00  0.00000000E+00  0.00000000E+00  1.00000000E+00  1.00000000E+00
  0.00000000E+00
MxBond                                     I                1
NBond                                      I   N=           2
           1           1
IBond                                      I   N=           2
           2           1
RBond                                      R   N=           2
  2.00000000E+00  2.00000000E+00
Virial Ratio                               R      2.007208059686157E+00
SCF Energy                                 R     -1.112245799291887E+02
Total Energy                               R     -1.112245799291887E+02
RMS Density                                R      1.923248073741968E-09
External E-field                           R   N=          35
  0.00000000E+00  0.00000000E+00  0.00000000E+00  0.00000000E+00  0.00000000E+00
  0.00000000E+00  0.00000000E+00  0.00000000E+00  0.00000000E+00  0.00000000E+00
  0.00000000E+00  0.00000000E+00  0.00000000E+00  0.00000000E+00  0.00000000E+00
  0.00000000E+00  0.00000000E+00  0.00000000E+00  0.00000000E+00  0.00000000E+00
  0.00000000E+00  0.00000000E+00  0.00000000E+00  0.00000000E+00  0.00000000E+00
  0.00000000E+00  0.00000000E+00  0.00000000E+00  0.00000000E+00  0.00000000E+00
  0.00000000E+00  0.00000000E+00  0.00000000E+00  0.00000000E+00  0.00000000E+00
IOpCl                                      I                0
IROHF                                      I                0
Alpha Orbital Energies                     R   N=          10
 -2.04242477E+01 -1.10933956E+01 -1.45995703E+00 -6.99453367E-01 -5.51097580E-01
 -5.51097580E-01 -4.46458499E-01  3.13406713E-01  3.13406713E-01  1.04006150E+00
Alpha MO coefficients                      R   N=         100
  9.94149690E-01  2.77799044E-02  3.55575002E-16  1.12592820E-15 -6.83544900E-03
  3.96623735E-04 -8.70747382E-03 -2.61912576E-16 -1.38317124E-15 -7.37793057E-03
 -2.14129477E-04 -6.93576999E-03  3.98043866E-16 -3.74221477E-16  9.78440285E-04
  9.93602766E-01  2.63209690E-02 -5.18812459E-16 -2.75388820E-16  7.01324427E-03
 -2.22428708E-01  7.66371154E-01 -2.06609835E-16  4.82428142E-16 -2.17968038E-01
 -1.26550662E-01  2.40293710E-01 -2.13764310E-17  4.98196947E-16  1.66937044E-01
 -1.32000225E-01  6.45856065E-01 -1.04841730E-14 -1.04230927E-14  6.27726929E-01
  1.66032224E-01 -5.38662255E-01 -5.79256050E-15 -5.46926753E-15 -6.78672412E-02
 -2.14621375E-16  1.54761625E-15 -4.85615158E-01  6.24294290E-01  6.16448234E-15
 -1.33193675E-15  7.11757300E-15 -2.73568519E-01  3.51692614E-01 -6.55518739E-15
 -2.20857106E-15  1.17589015E-14  6.24294290E-01  4.85615158E-01  2.27669088E-14
 -1.44451474E-15  1.14469196E-14  3.51692614E-01  2.73568519E-01 -1.65921776E-14
  1.09321599E-03  3.81628445E-02 -1.15380539E-14 -2.01727632E-14  4.34068836E-01
 -1.67121803E-01  7.60915714E-01 -5.75107803E-15 -9.90959528E-15 -5.72801024E-01
  1.46036174E-16 -3.00347181E-16 -6.36366478E-01  1.89471058E-01  4.71334458E-16
  4.47411254E-17  2.24728669E-16  8.92875510E-01 -2.65843776E-01 -1.60468074E-16
  2.05483133E-17 -5.43015726E-17 -1.89471058E-01 -6.36366478E-01 -1.24655342E-15
  1.18095968E-16 -7.05566810E-16  2.65843776E-01  8.92875510E-01  6.17141146E-16
  1.28274577E-01 -1.08519342E+00  2.25063906E-16  3.62092939E-17  9.69187077E-01
 -1.21926779E-01  9.73656596E-01 -2.03313144E-17  4.20751559E-16  1.22892036E+00
Total SCF Density                          R   N=          55
  2.11046687E+00 -4.56111004E-01  2.01346206E+00  9.92180395E-16 -1.54669040E-15
  1.25113089E+00  2.31882068E-15 -8.43212249E-16 -1.37086523E-15  1.25113089E+00
 -8.13977693E-02  5.09490909E-01 -6.53657846E-16 -1.01606590E-15  1.26002920E+00
  1.24621056E-02 -6.02016658E-03  7.08682610E-16 -6.49383972E-16  1.20468002E-01
  2.11751616E+00  1.96499919E-02 -2.70259714E-01  1.03104130E-15  7.26565019E-16
 -1.20268160E-01 -4.41722185E-01  1.85531886E+00 -4.30413681E-16 -5.37115851E-16
  7.04817420E-01 -2.20033410E-15  3.87954870E-16 -1.31432510E-15  1.61257909E-15
  3.97054858E-01 -2.90879728E-15  3.91803915E-16 -2.50857278E-16  7.04817420E-01
  1.12450709E-15 -9.05588283E-16  2.32988983E-15 -9.45803765E-16  3.97054858E-01
 -7.22711286E-02  1.23979898E-01  2.22229798E-16  3.64381080E-16 -6.55133630E-01
  1.40597700E-01 -7.17866037E-01 -7.19959263E-16 -1.41131384E-15  7.21357143E-01
Mulliken Charges                           R   N=           2
 -2.00702932E-01  2.00702932E-01
ESP Charges                                R   N=           2
  2.62938679E-02 -2.62938679E-02
NPA Charges                                R   N=           2
 -2.75844067E-01  2.75844067E-01
ONIOM Charges                              I   N=          16
           0           0           0           0           0           0
           0           0           0           0           0           0
           0           0           0           0
ONIOM Multiplicities                       I   N=          16
           1           0           0           0           0           0
           0           0           0           0           0           0
           0           0           0           0
Atom Layers                                I   N=           2
           1           1
Atom Modifiers                             I   N=           2
           0           0
Force Field                                I                0
Int Atom Modified Types                    I   N=           2
           0           0
Link Atoms                                 I   N=           2
           0           0
Atom Modified MM Charges                   R   N=           2
  0.00000000E+00  0.00000000E+00
Link Distances                             R   N=           8
  0.00000000E+00  0.00000000E+00  0.00000000E+00  0.00000000E+00  0.00000000E+00
  0.00000000E+00  0.00000000E+00  0.00000000E+00
Cartesian Gradient                         R   N=           6
  0.00000000E+00  0.00000000E+00  0.00000000E+00  0.00000000E+00  0.00000000E+00
  0.00000000E+00
Dipole Moment                              R   N=           3
 -9.21817347E-16 -3.24803772E-15  6.61851472E-02
Quadrupole Moment                          R   N=           6
  6.96664953E-01  6.96664953E-01 -1.39332991E+00  2.39233027E-15  4.42685471E-15
  2.91163808E-15
QEq coupling tensors                       R   N=          12
  3.39746100E-02 -6.25863957E-15  3.39746100E-02 -5.73769303E-16 -3.89937711E-15
 -6.79492200E-02 -2.21141654E-01 -2.77577297E-16 -2.21141654E-01 -1.20557558E-16
 -2.86516300E-15  4.42283308E-01
